ITEM: TIMESTEP
0
ITEM: NUMBER OF ATOMS
56
ITEM: BOX BOUNDS xy xz yz pp pp pp
-3.8564317731000002e+00 9.0196303039999997e+00 -3.8564317731000002e+00
-9.5705188750000003e-01 6.3648467016000003e+00 1.6601303727000001e+00
0.0000000000000000e+00 3.0615824364000002e+01 -9.5705188750000003e-01
ITEM: ATOMS id type xs ys zs
5 2 0.231027 0.0423274 0.492656
7 2 0.255256 0.472308 0.490555
17 3 0.261724 0.576371 0.445664
19 3 0.289812 0.276227 0.480325
25 3 0.176717 0.892319 0.449329
31 3 0.723425 0.30221 0.445618
37 4 0.56646 0.145417 0.496378
39 4 0.831658 0.406527 0.425661
41 4 0.615293 0.339563 0.448997
52 4 0.921233 0.371782 0.493991
55 4 0.266518 0.571459 0.413001
56 4 0.181511 0.887407 0.416666
10 3 0.00874151 0.556292 0.600591
12 3 0.499038 0.565147 0.603537
13 3 0.00600496 0.0774104 0.605877
14 3 0.499426 0.0667992 0.60582
21 3 0.439129 0.0638257 0.51453
24 3 0.014182 0.918936 0.522602
27 3 0.028302 0.402913 0.51493
29 3 0.447103 0.655674 0.519257
38 4 0.45281 0.788406 0.517784
43 4 0.0198645 0.521165 0.570234
45 4 0.485971 0.57901 0.573179
46 4 0.0139951 0.0545166 0.575131
47 4 0.487335 0.0652561 0.575109
51 4 0.883753 0.847058 0.506641
1 1 0.162869 0.404152 0.642971
2 1 0.163731 0.90194 0.640151
3 1 0.664434 0.407657 0.642149
4 1 0.664159 0.907432 0.641315
9 3 0.323693 0.743196 0.680669
11 3 0.319355 0.240934 0.68108
15 3 0.824737 0.245933 0.681012
16 3 0.836246 0.74386 0.674984
22 3 0.775269 0.967127 0.74344
30 3 0.677695 0.44791 0.739843
33 4 0.788585 0.0888653 0.729933
42 4 0.751606 0.587584 0.728244
44 4 0.346143 0.259039 0.711392
48 4 0.795718 0.304572 0.706734
49 4 0.83468 0.814518 0.701665
50 4 0.340242 0.76696 0.711438
6 2 0.567161 0.437516 0.787817
8 2 0.620254 0.878461 0.786504
18 3 0.713779 0.0556442 0.82579
20 3 0.610618 0.668994 0.801677
23 3 0.380885 0.815865 0.774402
26 3 0.662244 0.368469 0.825527
28 3 0.313122 0.268453 0.783901
32 3 0.262837 0.0132754 0.846763
34 4 0.269895 0.68262 0.78647
35 4 0.413392 0.121882 0.849229
36 4 0.260713 0.153472 0.805844
40 4 0.268229 0.906635 0.827993
53 4 0.708984 0.0605556 0.858453
54 4 0.65745 0.373381 0.85819
ITEM: TIMESTEP
1000
ITEM: NUMBER OF ATOMS
56
ITEM: BOX BOUNDS xy xz yz pp pp pp
-3.8564317731000002e+00 9.0196303039999997e+00 -3.8564317731000002e+00
-9.5705188750000003e-01 6.3648467016000003e+00 1.6601303727000001e+00
0.0000000000000000e+00 3.0615824364000002e+01 -9.5705188750000003e-01
ITEM: ATOMS id type xs ys zs
5 2 0.212263 -0.00100929 0.493695
7 2 0.307337 0.471594 0.489055
17 3 0.320195 0.558611 0.43818
19 3 0.297426 0.248113 0.490632
25 3 0.105953 0.870086 0.446894
31 3 0.716661 0.378981 0.469113
37 4 0.552354 0.121209 0.504426
39 4 0.687622 0.318515 0.438094
41 4 0.591487 0.375849 0.481708
52 4 0.969973 0.416724 0.491455
55 4 0.230856 0.604634 0.430932
56 4 0.154957 0.935895 0.42302
10 3 0.955094 0.541416 0.608496
12 3 0.493096 0.529564 0.609093
13 3 0.0145306 0.10811 0.600768
14 3 0.479575 0.0702521 0.600626
21 3 0.424337 -0.00128765 0.511729
24 3 0.0212438 0.87287 0.531492
27 3 0.0800325 0.431742 0.510726
29 3 0.477219 0.654501 0.524186
38 4 0.505069 0.787589 0.518043
43 4 0.944232 0.518 0.578258
45 4 0.486634 0.527473 0.578258
46 4 1.06581 0.119654 0.56974
47 4 0.474274 1.07679 0.569369
51 4 0.930783 0.72765 0.525866
1 1 0.166015 0.39895 0.646166
2 1 0.166859 0.902769 0.634108
3 1 0.643743 0.405709 0.655267
4 1 0.659029 0.886787 0.636658
9 3 0.318338 0.739719 0.679737
11 3 0.297168 0.214444 0.687984
15 3 0.80358 0.183257 0.678086
16 3 0.83487 0.779383 0.675276
22 3 0.811804 0.992806 0.753073
30 3 0.695646 0.514962 0.743074
50 4 0.350476 0.78628 0.709446
42 4 0.79912 0.655541 0.738814
44 4 0.299226 0.163993 0.716687
48 4 0.83144 0.159101 0.705946
49 4 0.855755 0.849584 0.702537
6 2 0.535542 0.460245 0.784369
8 2 0.61682 0.896542 0.78579
18 3 0.655318 0.0361378 0.831892
20 3 0.512518 0.657365 0.798135
23 3 0.384489 0.865154 0.768272
26 3 0.641736 0.448923 0.828978
28 3 0.312757 0.244045 0.772843
32 3 0.249859 0.0461699 0.843426
34 4 0.282338 0.728156 0.781058
35 4 0.365066 0.192041 0.848779
36 4 0.280959 0.12562 0.792117
40 4 0.324472 -0.0293675 0.841274
53 4 0.763031 0.161645 0.838434
54 4 0.675543 0.548877 0.852421
33 4 0.935256 0.121375 0.760819
ITEM: TIMESTEP
2000
ITEM: NUMBER OF ATOMS
56
ITEM: BOX BOUNDS xy xz yz pp pp pp
-3.8564317731000002e+00 9.0196303039999997e+00 -3.8564317731000002e+00
-9.5705188750000003e-01 6.3648467016000003e+00 1.6601303727000001e+00
0.0000000000000000e+00 3.0615824364000002e+01 -9.5705188750000003e-01
ITEM: ATOMS id type xs ys zs
5 2 0.25384 0.979908 0.489301
7 2 0.286029 0.435137 0.497266
17 3 0.296584 0.464022 0.443337
19 3 0.29548 0.216738 0.498304
25 3 0.189079 0.900206 0.438822
31 3 0.777911 0.452906 0.476445
56 4 0.0985962 0.731095 0.435667
39 4 0.866288 0.604826 0.488837
41 4 0.638867 0.428484 0.47218
37 4 0.598956 0.135726 0.498887
55 4 0.427061 0.536487 0.42371
10 3 0.93615 0.511708 0.605868
12 3 0.507889 0.560783 0.60304
13 3 -0.00252474 0.0494286 0.600506
14 3 0.518982 0.0640063 0.592677
21 3 0.47519 0.995108 0.504859
24 3 0.0314119 0.845938 0.518623
27 3 0.0749166 0.401988 0.523297
29 3 0.517962 0.635618 0.513509
38 4 0.519161 0.766957 0.50802
43 4 0.968602 0.496513 0.576077
45 4 0.488112 0.562807 0.572532
46 4 0.0268215 0.0367257 0.570991
47 4 0.502745 0.0160785 0.563045
51 4 0.90449 0.862841 0.51216
52 4 0.996707 0.428405 0.504943
1 1 0.150177 0.381571 0.64038
2 1 0.143407 0.889318 0.636537
3 1 0.667986 0.427803 0.652552
4 1 0.635552 0.90709 0.633462
9 3 0.310555 0.781438 0.674806
11 3 0.305975 0.272807 0.679334
15 3 0.85769 0.243807 0.681467
16 3 0.827253 0.767622 0.677052
49 4 0.791704 0.763518 0.708362
30 3 0.672827 0.486098 0.741971
50 4 0.327453 0.812548 0.706175
42 4 0.82195 0.594886 0.746459
44 4 0.297122 0.296134 0.710901
48 4 0.825275 0.179564 0.708742
6 2 0.515365 0.452002 0.785157
8 2 0.591171 0.907854 0.788576
18 3 0.577446 0.0171517 0.839418
20 3 0.484928 0.651409 0.796625
23 3 0.438497 0.957368 0.758021
26 3 0.608367 0.41463 0.83131
28 3 0.279588 0.246259 0.773746
32 3 0.241523 0.0605463 0.861339
34 4 0.46772 0.0969087 0.766539
35 4 0.357517 0.208025 0.870782
36 4 0.198085 0.167982 0.800817
40 4 0.314635 -0.00891429 0.850324
53 4 0.599014 0.166218 0.834152
54 4 0.678064 0.549251 0.845368
33 4 0.92592 0.171284 0.775335
22 3 0.829046 0.0142181 0.768832
